# vtk DataFile Version 4.0
vtk output
ASCII
DATASET POLYDATA
POINTS 8486 float
-119 -174 69.9613 -119 -173.961 70 -118.902 -174 70 
-120 -174 69.9613 -120 -173.961 70 -120.065 -174 70 
-115 -175 69.9289 -115 -174.901 70 -114.901 -175 70 
-116 -175 69.7001 -116 -174.587 70 -117 -175 69.7001 
-117 -174.587 70 -118 -175 69.7001 -118 -174.485 70 
-119 -175 69.7218 -120 -175 69.8405 -120.336 -175 70 
-115 -176 69.6471 -114.436 -176 70 -116 -176 69.5 
-117 -176 69.5 -118 -176 69.5975 -118.909 -176 70 
-119 -175.862 70 -120 -175.205 70 -115 -177 69.7571 
-114.432 -177 70 -116 -177 69.7001 -117 -177 69.7218 
-118 -177 69.8405 -118.336 -177 70 -115 -177.355 70 
-116 -177.413 70 -117 -177.355 70 -118 -177.179 70 
-115 -174 70.8149 -115 -173.858 71 -114.752 -174 71 
-116 -174 70.5866 -116 -173.7 71 -117 -174 70.5866 
-117 -173.7 71 -118 -174 70.4357 -118 -173.647 71 
-119 -173.543 71 -120 -173.543 71 -121 -174 70.935 
-121 -173.961 71 -121.039 -174 71 -114 -175 70.7435 
-114 -174.666 71 -113.743 -175 71 -121 -175 70.7161 
-121.129 -175 71 -114 -176 70.4164 -113.592 -176 71 
-119 -176 70.1329 -119.457 -176 71 -120 -175.645 71 
-121 -175.134 71 -114 -177 70.2867 -113.562 -177 71 
-118.844 -177 71 -119 -176.738 71 -114 -178 70.7894 
-113.76 -178 71 -115 -178 70.5 -116 -178 70.5 
-117 -178 70.6351 -117.691 -178 71 -118 -177.811 71 
-114 -178.3 71 -115 -178.587 71 -116 -178.563 71 
-117 -178.38 71 -114 -174 71.6662 -114 -173.793 72 
-113.568 -174 72 -115 -173.543 72 -116 -173.543 72 
-117 -173.666 72 -118 -173.713 72 -119 -173.612 72 
-120 -173.612 72 -121 -174 71.3222 -120.855 -174 72 
-113 -175 71.6883 -113 -174.5 72 -112.37 -175 72 
-121 -175 71.5194 -120.749 -175 72 -113 -176 71.9918 
-112.991 -176 72 -119 -176 71.4849 -118.448 -176 72 
-119 -175.549 72 -120 -175.332 72 -113 -176.047 72 
-113.112 -177 72 -118.388 -177 72 -113 -178 71.6332 
-113 -177.251 72 -112.525 -178 72 -118 -178 71.3053 
-118.353 -178 72 -111 -179 71.8348 -111 -178.827 72 
-110.664 -179 72 -112 -179 71.6664 -112 -178.487 72 
-113 -179 71.5 -114 -179 71.3529 -115 -179 71.2999 
-116 -179 71.3421 -117 -179 71.5168 -118 -179 71.9011 
-118.131 -179 72 -111 -180 71.7695 -110.442 -180 72 
-112 -180 71.7493 -113 -180 71.7218 -114 -180 71.7001 
-115 -180 71.7001 -116 -180 71.8303 -116.5 -180 72 
-117 -179.734 72 -118 -179.146 72 -111 -180.274 72 
-112 -180.292 72 -113 -180.355 72 -114 -180.431 72 
-115 -180.476 72 -116 -180.3 72 -111 -174 72.8275 
-111 -173.835 73 -110.6 -174 73 -112 -174 72.6454 
-112 -173.722 73 -113 -174 72.4083 -113 -173.647 73 
-114 -173.543 73 -115 -173.543 73 -116 -173.793 73 
-117 -174 72.5135 -116.377 -174 73 -118 -174 72.3546 
-119 -174 72.6112 -120 -174 72.6112 -111 -175 72.673 
-110.525 -175 73 -112 -175 72.171 -117 -174.589 73 
-118 -175 72.5539 -117.36 -175 73 -119 -175 72.4266 
-120 -175 72.3791 -111 -175.564 73 -111.411 -176 73 
-112 -176 72.6237 -118 -176 72.4001 -117.573 -176 73 
-112 -177 72.9788 -111.968 -177 73 -113 -177 72.1342 
-118 -177 72.8 -117.901 -177 73 -112 -178 72.4346 
-111.234 -178 73 -118 -178 72.9561 -117.983 -178 73 
-111 -178.169 73 -110.065 -179 73 -118 -178.094 73 
-118.169 -179 73 -110 -180 72.4636 -110 -179.184 73 
-109.793 -180 73 -117 -180 72.1894 -118 -180 72.6758 
-118.243 -180 73 -110 -180.432 73 -111 -181 72.8365 
-110.698 -181 73 -112 -181 72.9239 -113 -181 72.6607 
-114 -181 72.4461 -115 -181 72.3421 -116 -181 72.3529 
-117 -181 72.457 -118 -181 72.8008 -118.199 -181 73 
-111 -181.149 73 -112 -181.064 73 -113 -181.354 73 
-114 -181.758 73 -114.5 -182 73 -115 -182 72.8303 
-116 -182 72.7001 -117 -182 72.7001 -117.984 -182 73 
-118 -181.973 73 -115 -182.253 73 -116 -182.413 73 
-117 -182.413 73 -110 -174 73.3746 -110 -173.635 74 
-109.245 -174 74 -111 -173.513 74 -112 -173.5 74 
-113 -173.543 74 -114 -173.666 74 -115 -173.926 74 
-116 -174 73.3172 -115.128 -174 74 -110 -175 73.3763 
-109.194 -175 74 -116 -174.766 74 -117 -175 73.2852 
-116.185 -175 74 -110 -176 73.7896 -109.662 -176 74 
-111 -176 73.2577 -117 -176 73.6607 -116.592 -176 74 
-110 -176.934 74 -110.03 -177 74 -111 -177 73.5445 
-117 -176.723 74 -117.134 -177 74 -110 -178 73.7641 
-110 -177.066 74 -109.712 -178 74 -111 -178 73.165 
-117.125 -178 74 -110 -179 73.0857 -109.462 -179 74 
-118 -179 73.2048 -117.044 -179 74 -109.388 -180 74 
-118 -180 73.8544 -117.913 -180 74 -110 -181 73.3691 
-109.517 -181 74 -118 -180.146 74 -118.226 -181 74 
-110 -181.914 74 -111 -182 73.7642 -110.174 -182 74 
-112 -182 73.8584 -113 -182 73.5 -114 -182 73.1697 
-118 -182 73.014 -118.406 -182 74 -111 -182.267 74 
-112 -182.299 74 -112.468 -183 74 -113 -183 73.7001 
-114 -183 73.5143 -115 -183 73.5579 -116 -183 73.5866 
-117 -183 73.612 -118 -183 73.8277 -118.242 -183 74 
-113 -184 73.8975 -112.835 -184 74 -114 -184 73.8939 
-114.187 -184 74 -115 -183.48 74 -116 -183.309 74 
-117 -183.278 74 -118 -183.134 74 -113 -184.199 74 
-114 -184.187 74 -108 -174 74.8376 -108 -173.76 75 
-107.743 -174 75 -109 -174 74.2025 -109 -173.482 75 
-110 -173.468 75 -111 -173.487 75 -112 -173.543 75 
-113 -173.793 75 -114 -174 74.5135 -113.377 -174 75 
-115 -174 74.08 -108 -175 74.6579 -107.476 -175 75 
-109 -175 74.1418 -114 -174.96 75 -115 -175 74.5547 
-114.028 -175 75 -116 -175 74.1418 -108 -176 74.7001 
-107.524 -176 75 -109 -176 74.3529 -113 -176 74.9236 
-112.879 -176 75 -113 -175.899 75 -114 -175.038 75 
-114 -176 74.6664 -115 -176 74.543 -116 -176 74.3529 
-108 -177 74.8582 -107.806 -177 75 -109 -177 74.4541 
-110 -177 74.0156 -113 -177 74.7394 -112.432 -177 75 
-114 -177 74.7001 -115 -177 74.6471 -116 -177 74.5 
-117 -177 74.1119 -108 -177.334 75 -108.354 -178 75 
-109 -178 74.5 -113 -177.439 75 -114 -177.561 75 
-115 -178 74.9395 -114.817 -178 75 -116 -178 74.5547 
-117 -178 74.1061 -109 -179 74.4817 -108.5 -179 75 
-115 -179 74.8303 -114.7 -179 75 -116 -179 74.4453 
-117 -179 74.0268 -109 -180 74.4765 -108.554 -180 75 
-115 -180 74.8303 -114.7 -180 75 -116 -180 74.5 
-117 -180 74.3529 -109 -181 74.712 -108.79 -181 75 
-115 -180.413 75 -116 -181 74.8303 -115.587 -181 75 
-117 -181 74.6471 -118 -181 74.2435 -109 -181.37 75 
-110 -182 74.0751 -109.39 -182 75 -116 -181.3 75 
-117 -181.7 75 -118 -182 74.5708 -117.383 -182 75 
-110 -182.691 75 -111 -183 74.6237 -110.411 -183 75 
-112 -183 74.294 -118 -183 74.626 -117.626 -183 75 
-111 -183.67 75 -111.253 -184 75 -112 -184 74.5 
-114.881 -184 75 -115 -183.801 75 -116 -183.224 75 
-117 -183.134 75 -112 -185 74.6045 -111.321 -185 75 
-113 -185 74.3529 -114 -185 74.4078 -115 -184.5 75 
-115 -185 74.8805 -115.134 -185 75 -112 -186 74.7571 
-111.387 -186 75 -113 -186 74.7001 -114 -186 74.7001 
-115 -186 74.7815 -115.489 -186 75 -112 -186.355 75 
-113 -186.413 75 -114 -186.413 75 -115 -186.324 75 
-107 -172 75.9613 -107 -171.96 76 -106.902 -172 76 
-108 -172 75.8706 -108 -171.866 76 -108.757 -172 76 
-106 -173 75.7001 -106 -172.485 76 -105.373 -173 76 
-107 -173 75.5 -108 -173 75.4323 -109 -172.125 76 
-109 -173 75.6289 -110 -173 75.9322 -110 -172.875 76 
-110.171 -173 76 -106 -174 75.6471 -105.436 -174 76 
-107 -174 75.3529 -111 -173.238 76 -112 -173.721 76 
-113 -174 75.3338 -112.334 -174 76 -106 -175 75.7218 
-105.645 -175 76 -107 -175 75.2999 -113 -175 75.7516 
-112.649 -175 76 -114 -175 75.0181 -106 -176 75.9264 
-105.92 -176 76 -107 -176 75.3421 -112 -176 75.7391 
-111.811 -176 76 -112 -175.678 76 -106 -176.128 76 
-106.59 -177 76 -107 -177 75.6467 -112 -177 75.2867 
-111.562 -177 76 -107 -177.5 76 -108 -178 75.3238 
-107.353 -178 76 -112 -178 75.5734 -111.558 -178 76 
-113 -178 75.2999 -114 -178 75.2429 -108 -179 75.5633 
-107.658 -179 76 -112 -179 75.8303 -111.758 -179 76 
-113 -179 75.543 -114 -179 75.3529 -108 -180 75.8438 
-107.897 -180 76 -112 -179.456 76 -113 -180 75.6471 
-112.338 -180 76 -114 -180 75.3529 -108 -180.233 76 
-108.321 -181 76 -113 -181 75.7129 -112.631 -181 76 
-114 -181 75.457 -115 -181 75.2319 -109 -182 75.5522 
-108.671 -182 76 -113 -182 75.9651 -112.962 -182 76 
-114 -182 75.6471 -115 -182 75.5 -116 -182 75.3529 
-117 -182 75.1697 -109 -182.573 76 -110 -183 75.2966 
-109.267 -183 76 -113 -182.056 76 -114 -182.857 76 
-115 -183 75.4421 -114.117 -183 76 -116 -183 75.1992 
-117 -183 75.1294 -110 -184 75.6579 -109.522 -184 76 
-111 -184 75.1754 -114.455 -184 76 -110 -185 75.7896 
-109.712 -185 76 -111 -185 75.2104 -115 -184.716 76 
-115.219 -185 76 -110 -185.607 76 -110.167 -186 76 
-111 -186 75.1968 -116 -185.815 76 -116 -186 75.6282 
-116.195 -186 76 -111 -187 75.906 -110.896 -187 76 
-112 -187 75.5866 -113 -187 75.5866 -114 -187 75.5866 
-115 -187 75.612 -116 -187 75.8277 -116.356 -187 76 
-111 -187.074 76 -112 -187.3 76 -113 -187.3 76 
-114 -187.3 76 -115 -187.278 76 -116 -187.134 76 
-105 -168 76.9703 -105 -167.951 77 -104.951 -168 77 
-105.124 -168 77 -105 -168.6 77 -105 -172 76.906 
-105 -171.875 77 -104.924 -172 77 -106 -172 76.3649 
-106 -171.205 77 -107 -171.279 77 -108 -171.455 77 
-109 -172 76.0678 -109 -171.545 77 -110 -172 76.3888 
-110 -171.612 77 -111 -172 76.9987 -111 -171.999 77 
-111.001 -172 77 -105 -173 76.3013 -104.606 -173 77 
-111 -173 76.2926 -111.559 -173 77 -105 -174 76.4357 
-104.647 -174 77 -111.402 -174 77 -112 -174 76.3338 
-105 -175 76.8438 -104.897 -175 77 -112 -175 76.3671 
-111.029 -175 77 -105 -175.176 77 -105.441 -176 77 
-111.189 -176 77 -106 -176.97 77 -106.021 -177 77 
-111.17 -177 77 -107 -178 76.5643 -106.737 -178 77 
-111 -178 76.7466 -110.83 -178 77 -111 -177.5 77 
-107 -178.378 77 -107.353 -179 77 -111 -179 76.6454 
-110.722 -179 77 -107.647 -180 77 -111 -179.983 77 
-112 -180 76.2178 -111.007 -180 77 -108 -181 76.6694 
-107.803 -181 77 -112 -181 76.6465 -111.688 -181 77 
-108 -182 76.7034 -107.582 -182 77 -112 -181.854 77 
-112.056 -182 77 -108 -183 76.9007 -107.838 -183 77 
-109 -183 76.2358 -113 -183 76.4413 -112.089 -183 77 
-114 -183 76.0711 -108 -183.83 77 -108.029 -184 77 
-109 -184 76.3875 -113 -184 76.7681 -112.532 -184 77 
-114 -184 76.3531 -109 -185 76.5168 -108.424 -185 77 
-113 -184.5 77 -114 -185 76.7822 -113.544 -185 77 
[...]
POINT_DATA 8486
SCALARS scalars unsigned_short
LOOKUP_TABLE default
10 10 10 10 10 10 10 10 10 
10 10 10 10 10 10 10 10 10 
10 10 10 10 10 10 10 10 10 
10 10 10 10 10 10 10 10 10 
10 10 10 10 10 10 10 10 10 
10 10 10 10 10 10 10 10 10 
10 10 10 10 10 10 10 10 10 
10 10 10 10 10 10 10 10 10 
10 10 10 10 10 10 10 10 10 
10 10 10 10 10 10 10 10 10 
10 10 10 10 10 10 10 10 10 
10 10 10 10 10 10 10 10 10 
10 10 10 10 10 10 10 10 10 
10 10 10 10 10 10 10 10 10 
10 10 10 10 10 10 10 10 10 
10 10 10 10 10 10 10 10 10 
10 10 10 10 10 10 10 10 10 
10 10 10 10 10 10 10 10 10 
10 10 10 10 10 10 10 10 10 
10 10 10 10 10 10 10 10 10 
10 10 10 10 10 10 10 10 10 
10 10 10 10 10 10 10 10 10 
10 10 10 10 10 10 10 10 10 
10 10 10 10 10 10 10 10 10 
10 10 10 10 10 10 10 10 10 
10 10 10 10 10 10 10 10 10 
10 10 10 10 10 10 10 10 10 
10 10 10 10 10 10 10 10 10 
10 10 10 10 10 10 10 10 10 
10 10 10 10 10 10 10 10 10 
10 10 10 10 10 10 10 10 10 
10 10 10 10 10 10 10 10 10 
10 10 10 10 10 10 10 10 10 
10 10 10 10 10 10 10 10 10 
10 10 10 10 10 10 10 10 10 
10 10 10 10 10 10 10 10 10 
10 10 10 10 10 10 10 10 10 
10 10 10 10 10 10 10 10 10 
10 10 10 10 10 10 10 10 10 
10 10 10 10 10 10 10 10 10 
10 10 10 10 10 10 10 10 10 
10 10 10 10 10 10 10 10 10 
10 10 10 10 10 10 10 10 10 
10 10 10 10 10 10 10 10 10 
10 10 10 10 10 10 10 10 10 
10 10 10 10 10 10 10 10 10 
10 10 10 10 10 10 10 10 10 
10 10 10 10 10 10 10 10 10 
10 10 10 10 10 10 10 10 10 
10 10 10 10 10 10 10 10 10 
10 10 10 10 10 10 10 10 10 
10 10 10 10 10 10 10 10 10 
10 10 10 10 10 10 10 10 10 
10 10 10 10 10 10 10 10 10 
10 10 10 10 10 10 10 10 10 
10 10 10 10 10 10 10 10 10 
10 10 10 10 10 10 10 10 10 
10 10 10 10 10 10 10 10 10 
10 10 10 10 10 10 10 10 10 
10 10 10 10 10 10 10 10 10 
10 10 10 10 10 10 10 10 10 
10 10 10 10 10 10 10 10 10 
10 10 10 10 10 10 10 10 10 
10 10 10 10 10 10 10 10 10 
10 10 10 10 10 10 10 10 10 
10 10 10 10 10 10 10 10 10 
10 10 10 10 10 10 10 10 10 
10 10 10 10 10 10 10 10 10 
10 10 10 10 10 10 10 10 10 
10 10 10 10 10 10 10 10 10 
10 10 10 10 10 10 10 10 10 
10 10 10 10 10 10 10 10 10 
10 10 10 10 10 10 10 10 10 
10 10 10 10 10 10 10 10 10 
10 10 10 10 10 10 10 10 10 
10 10 10 10 10 10 10 10 10 
10 10 10 10 10 10 10 10 10 
10 10 10 10 10 10 10 10 10 
10 10 10 10 10 10 10 10 10 
10 10 10 10 10 10 10 10 10 
10 10 10 10 10 10 10 10 10 
10 10 10 10 10 10 10 10 10 
10 10 10 10 10 10 10 10 10 
10 10 10 10 10 10 10 10 10 
10 10 10 10 10 10 10 10 10 
10 10 10 10 10 10 10 10 10 
10 10 10 10 10 10 10 10 10 
10 10 10 10 10 10 10 10 10 
10 10 10 10 10 10 10 10 10 
10 10 10 10 10 10 10 10 10 
10 10 10 10 10 10 10 10 10 
10 10 10 10 10 10 10 10 10 
10 10 10 10 10 10 10 10 10 
10 10 10 10 10 10 10 10 10 
10 10 10 10 10 10 10 10 10 
10 10 10 10 10 10 10 10 10 
10 10 10 10 10 10 10 10 10 
10 10 10 10 10 10 10 10 10 
10 10 10 10 10 10 10 10 10 
10 10 10 10 10 10 10 10 10 
10 10 10 10 10 10 10 10 10 
10 10 10 10 10 10 10 10 10 
10 10 10 10 10 10 10 10 10 
10 10 10 10 10 10 10 10 10 
10 10 10 10 10 10 10 10 10 
10 10 10 10 10 10 10 10 10 
10 10 10 10 10 10 10 10 10 
10 10 10 10 10 10 10 10 10 
10 10 10 10 10 10 10 10 10 
10 10 10 10 10 10 10 10 10 
10 10 10 10 10 10 10 10 10 
10 10 10 10 10 10 10 10 10 
10 10 10 10 10 10 10 10 10 
10 10 10 10 10 10 10 10 10 
10 10 10 10 10 10 10 10 10 
10 10 10 10 10 10 10 10 10 
10 10 10 10 10 10 10 10 10 
10 10 10 10 10 10 10 10 10 
10 10 10 10 10 10 10 10 10 
10 10 10 10 10 10 10 10 10 
10 10 10 10 10 10 10 10 10 
10 10 10 10 10 10 10 10 10 
10 10 10 10 10 10 10 10 10 
10 10 10 10 10 10 10 10 10 
10 10 10 10 10 10 10 10 10 
10 10 10 10 10 10 10 10 10 
10 10 10 10 10 10 10 10 10 
10 10 10 10 10 10 10 10 10 
10 10 10 10 10 10 10 10 10 
10 10 10 10 10 10 10 10 10 
10 10 10 10 10 10 10 10 10 
10 10 10 10 10 10 10 10 10 
10 10 10 10 10 10 10 10 10 
10 10 10 10 10 10 10 10 10 
10 10 10 10 10 10 10 10 10 
10 10 10 10 10 10 10 10 10 
10 10 10 10 10 10 10 10 10 
10 10 10 10 10 10 10 10 10 
10 10 10 10 10 10 10 10 10 
10 10 10 10 10 10 10 10 10 
10 10 10 10 10 10 10 10 10 
10 10 10 10 10 10 10 10 10 
10 10 10 10 10 10 10 10 10 
10 10 10 10 10 10 10 10 10 
10 10 10 10 10 10 10 10 10 
10 10 10 10 10 10 10 10 10 
10 10 10 10 10 10 10 10 10 
10 10 10 10 10 10 10 10 10 
10 10 10 10 10 10 10 10 10 
10 10 10 10 10 10 10 10 10 
10 10 10 10 10 10 10 10 10 
10 10 10 10 10 10 10 10 10 
10 10 10 10 10 10 10 10 10 
10 10 10 10 10 10 10 10 10 
10 10 10 10 10 10 10 10 10 
10 10 10 10 10 10 10 10 10 
10 10 10 10 10 10 10 10 10 
10 10 10 10 10 10 10 10 10 
10 10 10 10 10 10 10 10 10 
10 10 10 10 10 10 10 10 10 
10 10 10 10 10 10 10 10 10 
10 10 10 10 10 10 10 10 10 
10 10 10 10 10 10 10 10 10 
10 10 10 10 10 10 10 10 10 
10 10 10 10 10 10 10 10 10 
10 10 10 10 10 10 10 10 10 
10 10 10 10 10 10 10 10 10 
10 10 10 10 10 10 10 10 10 
10 10 10 10 10 10 10 10 10 
10 10 10 10 10 10 10 10 10 
10 10 10 10 10 10 10 10 10 
10 10 10 10 10 10 10 10 10 
10 10 10 10 10 10 10 10 10 
10 10 10 10 10 10 10 10 10 
10 10 10 10 10 10 10 10 10 
10 10 10 10 10 10 10 10 10 
10 10 10 10 10 10 10 10 10 
10 10 10 10 10 10 10 10 10 
10 10 10 10 10 10 10 10 10 
10 10 10 10 10 10 10 10 10 
10 10 10 10 10 10 10 10 10 
10 10 10 10 10 10 10 10 10 
10 10 10 10 10 10 10 10 10 
10 10 10 10 10 10 10 10 10 
10 10 10 10 10 10 10 10 10 
10 10 10 10 10 10 10 10 10 
10 10 10 10 10 10 10 10 10 
10 10 10 10 10 10 10 10 10 
10 10 10 10 10 10 10 10 10 
10 10 10 10 10 10 10 10 10 
10 10 10 10 10 10 10 10 10 
10 10 10 10 10 10 10 10 10 
10 10 10 10 10 10 10 10 10 
10 10 10 10 10 10 10 10 10 
10 10 10 10 10 10 10 10 10 
10 10 10 10 10 10 10 10 10 
10 10 10 10 10 10 10 10 10 
10 10 10 10 10 10 10 10 10 
10 10 10 10 10 10 10 10 10 
10 10 10 10 10 10 10 10 10 
10 10 10 10 10 10 10 10 10 
10 10 10 10 10 10 10 10 10 
10 10 10 10 10 10 10 10 10 
10 10 10 10 10 10 10 10 10 
10 10 10 10 10 10 10 10 10 
10 10 10 10 10 10 10 10 10 
10 10 10 10 10 10 10 10 10 
10 10 10 10 10 10 10 10 10 
10 10 10 10 10 10 10 10 10 
10 10 10 10 10 10 10 10 10 
10 10 10 10 10 10 10 10 10 
10 10 10 10 10 10 10 10 10 
10 10 10 10 10 10 10 10 10 
10 10 10 10 10 10 10 10 10 
10 10 10 10 10 10 10 10 10 
10 10 10 10 10 10 10 10 10 
10 10 10 10 10 10 10 10 10 
10 10 10 10 10 10 10 10 10 
10 10 10 10 10 10 10 10 10 
10 10 10 10 10 10 10 10 10 
10 10 10 10 10 10 10 10 10 
10 10 10 10 10 10 10 10 10 
10 10 10 10 10 10 10 10 10 
10 10 10 10 10 10 10 10 10 
10 10 10 10 10 10 10 10 10 
10 10 10 10 10 10 10 10 10 
10 10 10 10 10 10 10 10 10 
10 10 10 10 10 10 10 10 10 
10 10 10 10 10 10 10 10 10 
10 10 10 10 10 10 10 10 10 
10 10 10 10 10 10 10 10 10 
10 10 10 10 10 10 10 10 10 
10 10 10 10 10 10 10 10 10 
10 10 10 10 10 10 10 10 10 
10 10 10 10 10 10 10 10 10 
10 10 10 10 10 10 10 10 10 
10 10 10 10 10 10 10 10 10 
10 10 10 10 10 10 10 10 10 
10 10 10 10 10 10 10 10 10 
10 10 10 10 10 10 10 10 10 
10 10 10 10 10 10 10 10 10 
10 10 10 10 10 10 10 10 10 
10 10 10 10 10 10 10 10 10 
10 10 10 10 10 10 10 10 10 
10 10 10 10 10 10 10 10 10 
10 10 10 10 10 10 10 10 10 
10 10 10 10 10 10 10 10 10 
10 10 10 10 10 10 10 10 10 
10 10 10 10 10 10 10 10 10 
10 10 10 10 10 10 10 10 10 
10 10 10 10 10 10 10 10 10 
10 10 10 10 10 10 10 10 10 
10 10 10 10 10 10 10 10 10 
10 10 10 10 10 10 10 10 10 
10 10 10 10 10 10 10 10 10 
10 10 10 10 10 10 10 10 10 
10 10 10 10 10 10 10 10 10 
10 10 10 10 10 10 10 10 10 
10 10 10 10 10 10 10 10 10 
10 10 10 10 10 10 10 10 10 
10 10 10 10 10 10 10 10 10 
10 10 10 10 10 10 10 10 10 
10 10 10 10 10 10 10 10 10 
10 10 10 10 10 10 10 10 10 
10 10 10 10 10 10 10 10 10 
10 10 10 10 10 10 10 10 10 
10 10 10 10 10 10 10 10 10 
10 10 10 10 10 10 10 10 10 
10 10 10 10 10 10 10 10 10 
10 10 10 10 10 10 10 10 10 
10 10 10 10 10 10 10 10 10 
10 10 10 10 10 10 10 10 10 
10 10 10 10 10 10 10 10 10 
10 10 10 10 10 10 10 10 10 
10 10 10 10 10 10 10 10 10 
10 10 10 10 10 10 10 10 10 
10 10 10 10 10 10 10 10 10 
10 10 10 10 10 10 10 10 10 
10 10 10 10 10 10 10 10 10 
10 10 10 10 10 10 10 10 10 
10 10 10 10 10 10 10 10 10 
10 10 10 10 10 10 10 10 10 
10 10 10 10 10 10 10 10 10 
10 10 10 10 10 10 10 10 10 
10 10 10 10 10 10 10 10 10 
10 10 10 10 10 10 10 10 10 
10 10 10 10 10 10 10 10 10 
10 10 10 10 10 10 10 10 10 
10 10 10 10 10 10 10 10 10 
10 10 10 10 10 10 10 10 10 
10 10 10 10 10 10 10 10 10 
10 10 10 10 10 10 10 10 10 
10 10 10 10 10 10 10 10 10 
10 10 10 10 10 10 10 10 10 
10 10 10 10 10 10 10 10 10 
10 10 10 10 10 10 10 10 10 
10 10 10 10 10 10 10 10 10 
10 10 10 10 10 10 10 10 10 
10 10 10 10 10 10 10 10 10 
10 10 10 10 10 10 10 10 10 
10 10 10 10 10 10 10 10 10 
10 10 10 10 10 10 10 10 10 
10 10 10 10 10 10 10 10 10 
10 10 10 10 10 10 10 10 10 
10 10 10 10 10 10 10 10 10 
10 10 10 10 10 10 10 10 10 
10 10 10 10 10 10 10 10 10 
10 10 10 10 10 10 10 10 10 
10 10 10 10 10 10 10 10 10 
10 10 10 10 10 10 10 10 10 
10 10 10 10 10 10 10 10 10 
10 10 10 10 10 10 10 10 10 
10 10 10 10 10 10 10 10 10 
10 10 10 10 10 10 10 10 10 
10 10 10 10 10 10 10 10 10 
10 10 10 10 10 10 10 10 10 
10 10 10 10 10 10 10 10 10 
10 10 10 10 10 10 10 10 10 
10 10 10 10 10 10 10 10 10 
10 10 10 10 10 10 10 10 10 
10 10 10 10 10 10 10 10 10 
10 10 10 10 10 10 10 10 10 
10 10 10 10 10 10 10 10 10 
10 10 10 10 10 10 10 10 10 
10 10 10 10 10 10 10 10 10 
10 10 10 10 10 10 10 10 10 
10 10 10 10 10 10 10 10 10 
10 10 10 10 10 10 10 10 10 
10 10 10 10 10 10 10 10 10 
10 10 10 10 10 10 10 10 10 
10 10 10 10 10 10 10 10 10 
10 10 10 10 10 10 10 10 10 
10 10 10 10 10 10 10 10 10 
10 10 10 10 10 10 10 10 10 
10 10 10 10 10 10 10 10 10 
10 10 10 10 10 10 10 10 10 
10 10 10 10 10 10 10 10 10 
10 10 10 10 10 10 10 10 10 
10 10 10 10 10 10 10 10 10 
10 10 10 10 10 10 10 10 10 
10 10 10 10 10 10 10 10 10 
10 10 10 10 10 10 10 10 10 
10 10 10 10 10 10 10 10 10 
10 10 10 10 10 10 10 10 10 
10 10 10 10 10 10 10 10 10 
10 10 10 10 10 10 10 10 10 
10 10 10 10 10 10 10 10 10 
10 10 10 10 10 10 10 10 10 
10 10 10 10 10 10 10 10 10 
10 10 10 10 10 10 10 10 10 
10 10 10 10 10 10 10 10 10 
10 10 10 10 10 10 10 10 10 
10 10 10 10 10 10 10 10 10 
10 10 10 10 10 10 10 10 10 
10 10 10 10 10 10 10 10 10 
10 10 10 10 10 10 10 10 10 
10 10 10 10 10 10 10 10 10 
10 10 10 10 10 10 10 10 10 
10 10 10 10 10 10 10 10 10 
10 10 10 10 10 10 10 10 10 
10 10 10 10 10 10 10 10 10 
10 10 10 10 10 10 10 10 10 
10 10 10 10 10 10 10 10 10 
10 10 10 10 10 10 10 10 10 
10 10 10 10 10 10 10 10 10 
10 10 10 10 10 10 10 10 10 
10 10 10 10 10 10 10 10 10 
10 10 10 10 10 10 10 10 10 
10 10 10 10 10 10 10 10 10 
10 10 10 10 10 10 10 10 10 
10 10 10 10 10 10 10 10 10 
10 10 10 10 10 10 10 10 10 
10 10 10 10 10 10 10 10 10 
10 10 10 10 10 10 10 10 10 
10 10 10 10 10 10 10 10 10 
10 10 10 10 10 10 10 10 10 
10 10 10 10 10 10 10 10 10 
10 10 10 10 10 10 10 10 10 
10 10 10 10 10 10 10 10 10 
10 10 10 10 10 10 10 10 10 
10 10 10 10 10 10 10 10 10 
10 10 10 10 10 10 10 10 10 
10 10 10 10 10 10 10 10 10 
10 10 10 10 10 10 10 10 10 
10 10 10 10 10 10 10 10 10 
10 10 10 10 10 10 10 10 10 
10 10 10 10 10 10 10 10 10 
10 10 10 10 10 10 10 10 10 
10 10 10 10 10 10 10 10 10 
10 10 10 10 10 10 10 10 10 
10 10 10 10 10 10 10 10 10 
10 10 10 10 10 10 10 10 10 
10 10 10 10 10 10 10 10 10 
10 10 10 10 10 10 10 10 10 
10 10 10 10 10 10 10 10 10 
10 10 10 10 10 10 10 10 10 
10 10 10 10 10 10 10 10 10 
10 10 10 10 10 10 10 10 10 
10 10 10 10 10 10 10 10 10 
10 10 10 10 10 10 10 10 10 
10 10 10 10 10 10 10 10 10 
10 10 10 10 10 10 10 10 10 
10 10 10 10 10 10 10 10 10 
10 10 10 10 10 10 10 10 10 
10 10 10 10 10 10 10 10 10 
10 10 10 10 10 10 10 10 10 
10 10 10 10 10 10 10 10 10 
10 10 10 10 10 10 10 10 10 
10 10 10 10 10 10 10 10 10 
10 10 10 10 10 10 10 10 10 
10 10 10 10 10 10 10 10 10 
10 10 10 10 10 10 10 10 10 
10 10 10 10 10 10 10 10 10 
10 10 10 10 10 10 10 10 10 
10 10 10 10 10 10 10 10 10 
10 10 10 10 10 10 10 10 10 
10 10 10 10 10 10 10 10 10 
10 10 10 10 10 10 10 10 10 
10 10 10 10 10 10 10 10 10 
10 10 10 10 10 10 10 10 10 
10 10 10 10 10 10 10 10 10 
10 10 10 10 10 10 10 10 10 
10 10 10 10 10 10 10 10 10 
10 10 10 10 10 10 10 10 10 
10 10 10 10 10 10 10 10 10 
10 10 10 10 10 10 10 10 10 
10 10 10 10 10 10 10 10 10 
10 10 10 10 10 10 10 10 10 
10 10 10 10 10 10 10 10 10 
10 10 10 10 10 10 10 10 10 
10 10 10 10 10 10 10 10 10 
10 10 10 10 10 10 10 10 10 
10 10 10 10 10 10 10 10 10 
10 10 10 10 10 10 10 10 10 
10 10 10 10 10 10 10 10 10 
10 10 10 10 10 10 10 10 10 
10 10 10 10 10 10 10 10 10 
10 10 10 10 10 10 10 10 10 
10 10 10 10 10 10 10 10 10 
10 10 10 10 10 10 10 10 10 
10 10 10 10 10 10 10 10 10 
10 10 10 10 10 10 10 10 10 
10 10 10 10 10 10 10 10 10 
10 10 10 10 10 10 10 10 10 
10 10 10 10 10 10 10 10 10 
10 10 10 10 10 10 10 10 10 
10 10 10 10 10 10 10 10 10 
10 10 10 10 10 10 10 10 10 
10 10 10 10 10 10 10 10 10 
10 10 10 10 10 10 10 10 10 
10 10 10 10 10 10 10 10 10 
10 10 10 10 10 10 10 10 10 
10 10 10 10 10 10 10 10 10 
10 10 10 10 10 10 10 10 10 
10 10 10 10 10 10 10 10 10 
10 10 10 10 10 10 10 10 10 
10 10 10 10 10 10 10 10 10 
10 10 10 10 10 10 10 10 10 
10 10 10 10 10 10 10 10 10 
10 10 10 10 10 10 10 10 10 
10 10 10 10 10 10 10 10 10 
10 10 10 10 10 10 10 10 10 
10 10 10 10 10 10 10 10 10 
10 10 10 10 10 10 10 10 10 
10 10 10 10 10 10 10 10 10 
10 10 10 10 10 10 10 10 10 
10 10 10 10 10 10 10 10 10 
10 10 10 10 10 10 10 10 10 
10 10 10 10 10 10 10 10 10 
10 10 10 10 10 10 10 10 10 
10 10 10 10 10 10 10 10 10 
10 10 10 10 10 10 10 10 10 
10 10 10 10 10 10 10 10 10 
10 10 10 10 10 10 10 10 10 
10 10 10 10 10 10 10 10 10 
10 10 10 10 10 10 10 10 10 
10 10 10 10 10 10 10 10 10 
10 10 10 10 10 10 10 10 10 
10 10 10 10 10 10 10 10 10 
10 10 10 10 10 10 10 10 10 
10 10 10 10 10 10 10 10 10 
10 10 10 10 10 10 10 10 10 
10 10 10 10 10 10 10 10 10 
10 10 10 10 10 10 10 10 10 
10 10 10 10 10 10 10 10 10 
10 10 10 10 10 10 10 10 10 
10 10 10 10 10 10 10 10 10 
10 10 10 10 10 10 10 10 10 
10 10 10 10 10 10 10 10 10 
10 10 10 10 10 10 10 10 10 
10 10 10 10 10 10 10 10 10 
10 10 10 10 10 10 10 10 10 
10 10 10 10 10 10 10 10 10 
10 10 10 10 10 10 10 10 10 
10 10 10 10 10 10 10 10 10 
10 10 10 10 10 10 10 10 10 
10 10 10 10 10 10 10 10 10 
10 10 10 10 10 10 10 10 10 
10 10 10 10 10 10 10 10 10 
10 10 10 10 10 10 10 10 10 
10 10 10 10 10 10 10 10 10 
10 10 10 10 10 10 10 10 10 
10 10 10 10 10 10 10 10 10 
10 10 10 10 10 10 10 10 10 
10 10 10 10 10 10 10 10 10 
10 10 10 10 10 10 10 10 10 
10 10 10 10 10 10 10 10 10 
10 10 10 10 10 10 10 10 10 
10 10 10 10 10 10 10 10 10 
10 10 10 10 10 30 30 30 30 
30 30 30 30 30 30 30 30 30 
30 30 30 30 30 30 30 30 30 
30 30 30 30 30 30 30 30 30 
30 30 30 30 30 30 30 30 30 
30 30 30 30 30 30 30 30 30 
30 30 30 30 30 30 30 30 30 
30 30 30 30 30 30 30 30 30 
30 30 30 30 30 30 30 30 30 
30 30 30 30 30 30 30 30 30 
30 30 30 30 30 30 30 30 30 
30 30 30 30 30 30 30 30 30 
30 30 30 30 30 30 30 30 30 
30 30 30 30 30 30 30 30 30 
30 30 30 30 30 30 30 30 30 
30 30 30 30 30 30 30 30 30 
30 30 30 30 30 30 30 30 30 
30 30 30 30 30 30 30 30 30 
30 30 30 30 30 30 30 30 30 
30 30 30 30 30 30 30 30 30 
30 30 30 30 30 30 30 30 30 
30 30 30 30 30 30 30 30 30 
30 30 30 30 30 30 30 30 30 
30 30 30 30 30 30 30 30 30 
30 30 30 30 30 30 30 30 30 
30 30 30 30 30 30 30 30 30 
30 30 30 30 30 30 30 30 30 
30 30 30 30 30 30 30 30 30 
30 30 30 30 30 30 30 30 30 
30 30 30 30 30 30 30 30 30 
30 30 30 30 30 30 30 30 30 
30 30 30 30 30 30 30 30 30 
30 30 30 30 30 30 30 30 30 
30 30 30 30 30 30 30 30 30 
30 30 30 30 30 30 30 30 30 
30 30 30 30 30 30 30 30 30 
30 30 30 30 30 30 30 30 30 
30 30 30 30 30 30 30 30 30 
30 30 30 30 30 30 30 30 30 
30 30 30 30 30 30 30 30 30 
30 30 30 30 30 30 30 30 30 
30 30 30 30 30 30 30 30 30 
30 30 30 30 30 30 30 30 30 
30 30 30 30 30 30 30 30 30 
30 30 30 30 30 30 30 30 30 
30 30 30 30 30 30 30 30 30 
30 30 30 30 30 30 30 30 30 
30 30 30 30 30 30 30 30 30 
30 30 30 30 30 30 30 30 30 
30 30 30 30 30 30 30 30 30 
30 30 30 30 30 30 30 30 30 
30 30 30 30 30 30 30 30 30 
30 30 30 30 30 30 30 30 30 
30 30 30 30 30 30 30 30 30 
30 30 30 30 30 30 30 30 30 
30 30 30 30 30 30 30 30 30 
30 30 30 30 30 30 30 30 30 
30 30 30 30 30 30 30 30 30 
30 30 30 30 30 30 30 30 30 
30 30 30 30 30 30 30 30 30 
30 30 30 30 30 30 30 30 30 
30 30 30 30 30 30 30 30 30 
30 30 30 30 30 30 30 30 30 
30 30 30 30 30 30 30 30 30 
30 30 30 30 30 30 30 30 30 
30 30 30 30 30 30 30 30 30 
30 30 30 30 30 30 30 30 30 
30 30 30 30 30 30 30 30 30 
30 30 30 30 30 30 30 30 30 
30 30 30 30 30 30 30 30 30 
30 30 30 30 30 30 30 30 30 
30 30 30 30 30 30 30 30 30 
30 30 30 30 30 30 30 30 30 
30 30 30 30 30 30 30 30 30 
30 30 30 30 30 30 30 30 30 
30 30 30 30 30 30 30 30 30 
30 30 30 30 30 30 30 30 30 
30 30 30 30 30 30 30 30 30 
30 30 30 30 30 30 30 30 30 
30 30 30 30 30 30 30 30 30 
30 30 30 30 30 30 30 30 30 
30 30 30 30 30 30 30 30 30 
30 30 30 30 30 30 30 30 30 
30 30 30 30 30 30 30 30 30 
30 30 30 30 30 30 30 30 30 
30 30 30 30 30 30 30 30 30 
30 30 30 30 30 30 30 30 30 
30 30 30 30 30 30 30 30 30 
30 30 30 30 30 30 30 30 30 
30 30 30 30 30 30 30 30 30 
30 30 30 30 30 30 30 30 30 
30 30 30 30 30 30 30 30 30 
30 30 30 30 30 30 30 30 30 
30 30 30 30 30 30 30 30 30 
30 30 30 30 30 30 30 30 30 
30 30 30 30 30 30 30 30 30 
30 30 30 30 30 30 30 30 30 
30 30 30 30 30 30 30 30 30 
30 30 30 30 30 30 30 30 30 
30 30 30 30 30 30 30 30 30 
30 30 30 30 30 30 30 30 30 
30 30 30 30 30 30 30 30 30 
30 30 30 30 30 30 30 30 30 
30 30 30 30 30 30 30 30 30 
30 30 30 30 30 30 30 30 30 
30 30 30 30 30 30 30 30 30 
30 30 30 30 30 30 30 30 30 
30 30 30 30 30 30 30 30 30 
30 30 30 30 30 30 30 30 30 
30 30 30 30 30 30 30 30 30 
30 30 30 30 30 30 30 30 30 
30 30 30 30 30 30 30 30 30 
30 30 30 30 30 30 30 30 30 
30 30 30 30 30 30 30 30 30 
30 30 30 30 30 30 30 30 30 
30 30 30 30 30 30 30 30 30 
30 30 30 30 30 30 30 30 30 
30 30 30 30 30 30 30 30 30 
30 30 30 30 30 30 30 30 30 
30 30 30 30 30 30 30 30 30 
30 30 30 30 30 30 30 30 30 
30 30 30 30 30 30 30 30 30 
30 30 30 30 30 30 30 30 30 
30 30 30 30 30 30 30 30 30 
30 30 30 30 30 30 30 30 30 
30 30 30 30 30 30 30 30 30 
30 30 30 30 30 30 30 30 30 
30 30 30 30 30 30 30 30 30 
30 30 30 30 30 30 30 30 30 
30 30 30 30 30 30 30 30 30 
30 30 30 30 30 30 30 30 30 
30 30 30 30 30 30 30 30 30 
30 30 30 30 30 30 30 30 30 
30 30 30 30 30 30 30 30 30 
30 30 30 30 30 30 30 30 30 
30 30 30 30 30 30 30 30 30 
30 30 30 30 30 30 30 30 30 
30 30 30 30 30 30 30 30 30 
30 30 30 30 30 30 30 30 30 
30 30 30 30 30 30 30 30 30 
30 30 30 30 30 30 30 30 30 
30 30 30 30 30 30 30 30 30 
30 30 30 30 30 30 30 30 30 
30 30 30 30 30 30 30 30 30 
30 30 30 30 30 30 30 30 30 
30 30 30 30 30 30 30 30 30 
30 30 30 30 30 30 30 30 30 
30 30 30 30 30 30 30 30 30 
30 30 30 30 30 30 30 30 30 
30 30 30 30 30 30 30 30 30 
30 30 30 30 30 30 30 30 30 
30 30 30 30 30 30 30 30 30 
30 30 30 30 30 30 30 30 30 
30 30 30 30 30 30 30 30 30 
30 30 30 30 30 30 30 30 30 
30 30 30 30 30 30 30 30 30 
30 30 30 30 30 30 30 30 30 
30 30 30 30 30 30 30 30 30 
30 30 30 30 30 30 30 30 30 
30 30 30 30 30 30 30 30 30 
30 30 30 30 30 30 30 30 30 
30 30 30 30 30 30 30 30 30 
30 30 30 30 30 30 30 30 30 
30 30 30 30 30 30 30 30 30 
30 30 30 30 30 30 30 30 30 
30 30 30 30 30 30 30 30 30 
30 30 30 30 30 30 30 30 30 
30 30 30 30 30 30 30 30 30 
30 30 30 30 30 30 30 30 30 
30 30 30 30 30 30 30 30 30 
30 30 30 30 30 30 30 30 30 
30 30 30 30 30 30 30 30 30 
30 30 30 30 30 30 30 30 30 
30 30 30 30 30 30 30 30 30 
30 30 30 30 30 30 30 30 30 
30 30 30 30 30 30 30 30 30 
30 30 30 30 30 30 30 30 30 
30 30 30 30 30 30 30 30 30 
30 30 30 30 30 30 30 30 30 
30 30 30 30 30 30 30 30 30 
30 30 30 30 30 30 30 30 30 
30 30 30 30 30 30 30 30 30 
30 30 30 30 30 30 30 30 30 
30 30 30 30 30 30 30 30 30 
30 30 30 30 30 30 30 30 30 
30 30 30 30 30 30 30 30 30 
30 30 30 30 30 30 30 30 30 
30 30 30 30 30 30 30 30 30 
30 30 30 30 30 30 30 30 30 
30 30 30 30 30 30 30 30 30 
30 30 30 30 30 30 30 30 30 
30 30 30 30 30 30 30 30 30 
30 30 30 30 30 30 30 30 30 
30 30 30 30 30 30 30 30 30 
30 30 30 30 30 30 30 30 30 
30 30 30 30 30 30 30 30 30 
30 30 30 30 30 30 30 30 30 
30 30 30 30 30 30 30 30 30 
30 30 30 30 30 30 30 30 30 
30 30 30 30 30 30 30 30 30 
30 30 30 30 30 30 30 30 30 
30 30 30 30 30 30 30 30 30 